+ 0.1 0 2 ping 64 ------- 0 0.0 4.0 -1 0
- 0.1 0 2 ping 64 ------- 0 0.0 4.0 -1 0
+ 0.1 5 3 ping 64 ------- 0 5.0 1.0 -1 1
- 0.1 5 3 ping 64 ------- 0 5.0 1.0 -1 1
r 0.11512 0 2 ping 64 ------- 0 0.0 4.0 -1 0
+ 0.11512 2 3 ping 64 ------- 0 0.0 4.0 -1 0
- 0.11512 2 3 ping 64 ------- 0 0.0 4.0 -1 0
r 0.11512 5 3 ping 64 ------- 0 5.0 1.0 -1 1
+ 0.11512 3 2 ping 64 ------- 0 5.0 1.0 -1 1
- 0.11512 3 2 ping 64 ------- 0 5.0 1.0 -1 1
r 0.13024 2 3 ping 64 ------- 0 0.0 4.0 -1 0
+ 0.13024 3 4 ping 64 ------- 0 0.0 4.0 -1 0
d 0.13024 3 4 ping 64 ------- 0 0.0 4.0 -1 0
r 0.13024 3 2 ping 64 ------- 0 5.0 1.0 -1 1
+ 0.13024 2 1 ping 64 ------- 0 5.0 1.0 -1 1
- 0.13024 2 1 ping 64 ------- 0 5.0 1.0 -1 1
r 0.14536 2 1 ping 64 ------- 0 5.0 1.0 -1 1
+ 0.14536 1 2 ping 64 ------- 0 1.0 5.0 -1 2
- 0.14536 1 2 ping 64 ------- 0 1.0 5.0 -1 2
r 0.16048 1 2 ping 64 ------- 0 1.0 5.0 -1 2
+ 0.16048 2 3 ping 64 ------- 0 1.0 5.0 -1 2
- 0.16048 2 3 ping 64 ------- 0 1.0 5.0 -1 2
r 0.1756 2 3 ping 64 ------- 0 1.0 5.0 -1 2
+ 0.1756 3 5 ping 64 ------- 0 1.0 5.0 -1 2
d 0.1756 3 5 ping 64 ------- 0 1.0 5.0 -1 2
+ 0.2 0 2 ping 64 ------- 0 0.0 4.0 -1 3
- 0.2 0 2 ping 64 ------- 0 0.0 4.0 -1 3
+ 0.2 5 3 ping 64 ------- 0 5.0 1.0 -1 4
- 0.2 5 3 ping 64 ------- 0 5.0 1.0 -1 4
r 0.21512 0 2 ping 64 ------- 0 0.0 4.0 -1 3
+ 0.21512 2 3 ping 64 ------- 0 0.0 4.0 -1 3
- 0.21512 2 3 ping 64 ------- 0 0.0 4.0 -1 3
r 0.21512 5 3 ping 64 ------- 0 5.0 1.0 -1 4
+ 0.21512 3 2 ping 64 ------- 0 5.0 1.0 -1 4
- 0.21512 3 2 ping 64 ------- 0 5.0 1.0 -1 4
r 0.23024 2 3 ping 64 ------- 0 0.0 4.0 -1 3
+ 0.23024 3 4 ping 64 ------- 0 0.0 4.0 -1 3
d 0.23024 3 4 ping 64 ------- 0 0.0 4.0 -1 3
r 0.23024 3 2 ping 64 ------- 0 5.0 1.0 -1 4
+ 0.23024 2 1 ping 64 ------- 0 5.0 1.0 -1 4
- 0.23024 2 1 ping 64 ------- 0 5.0 1.0 -1 4
r 0.24536 2 1 ping 64 ------- 0 5.0 1.0 -1 4
+ 0.24536 1 2 ping 64 ------- 0 1.0 5.0 -1 5
- 0.24536 1 2 ping 64 ------- 0 1.0 5.0 -1 5
r 0.26048 1 2 ping 64 ------- 0 1.0 5.0 -1 5
+ 0.26048 2 3 ping 64 ------- 0 1.0 5.0 -1 5
- 0.26048 2 3 ping 64 ------- 0 1.0 5.0 -1 5
r 0.2756 2 3 ping 64 ------- 0 1.0 5.0 -1 5
+ 0.2756 3 5 ping 64 ------- 0 1.0 5.0 -1 5
d 0.2756 3 5 ping 64 ------- 0 1.0 5.0 -1 5
+ 0.3 0 2 ping 64 ------- 0 0.0 4.0 -1 6
- 0.3 0 2 ping 64 ------- 0 0.0 4.0 -1 6
+ 0.3 5 3 ping 64 ------- 0 5.0 1.0 -1 7
- 0.3 5 3 ping 64 ------- 0 5.0 1.0 -1 7
r 0.31512 0 2 ping 64 ------- 0 0.0 4.0 -1 6
+ 0.31512 2 3 ping 64 ------- 0 0.0 4.0 -1 6
- 0.31512 2 3 ping 64 ------- 0 0.0 4.0 -1 6
r 0.31512 5 3 ping 64 ------- 0 5.0 1.0 -1 7
+ 0.31512 3 2 ping 64 ------- 0 5.0 1.0 -1 7
- 0.31512 3 2 ping 64 ------- 0 5.0 1.0 -1 7
r 0.33024 2 3 ping 64 ------- 0 0.0 4.0 -1 6
+ 0.33024 3 4 ping 64 ------- 0 0.0 4.0 -1 6
d 0.33024 3 4 ping 64 ------- 0 0.0 4.0 -1 6
r 0.33024 3 2 ping 64 ------- 0 5.0 1.0 -1 7
+ 0.33024 2 1 ping 64 ------- 0 5.0 1.0 -1 7
- 0.33024 2 1 ping 64 ------- 0 5.0 1.0 -1 7
r 0.34536 2 1 ping 64 ------- 0 5.0 1.0 -1 7
+ 0.34536 1 2 ping 64 ------- 0 1.0 5.0 -1 8
- 0.34536 1 2 ping 64 ------- 0 1.0 5.0 -1 8
r 0.36048 1 2 ping 64 ------- 0 1.0 5.0 -1 8
+ 0.36048 2 3 ping 64 ------- 0 1.0 5.0 -1 8
- 0.36048 2 3 ping 64 ------- 0 1.0 5.0 -1 8
r 0.3756 2 3 ping 64 ------- 0 1.0 5.0 -1 8
+ 0.3756 3 5 ping 64 ------- 0 1.0 5.0 -1 8
d 0.3756 3 5 ping 64 ------- 0 1.0 5.0 -1 8
+ 0.4 0 2 ping 64 ------- 0 0.0 4.0 -1 9
- 0.4 0 2 ping 64 ------- 0 0.0 4.0 -1 9
+ 0.4 5 3 ping 64 ------- 0 5.0 1.0 -1 10
- 0.4 5 3 ping 64 ------- 0 5.0 1.0 -1 10
r 0.41512 0 2 ping 64 ------- 0 0.0 4.0 -1 9
+ 0.41512 2 3 ping 64 ------- 0 0.0 4.0 -1 9
- 0.41512 2 3 ping 64 ------- 0 0.0 4.0 -1 9
r 0.41512 5 3 ping 64 ------- 0 5.0 1.0 -1 10
+ 0.41512 3 2 ping 64 ------- 0 5.0 1.0 -1 10
- 0.41512 3 2 ping 64 ------- 0 5.0 1.0 -1 10
r 0.43024 2 3 ping 64 ------- 0 0.0 4.0 -1 9
+ 0.43024 3 4 ping 64 ------- 0 0.0 4.0 -1 9
d 0.43024 3 4 ping 64 ------- 0 0.0 4.0 -1 9
r 0.43024 3 2 ping 64 ------- 0 5.0 1.0 -1 10
+ 0.43024 2 1 ping 64 ------- 0 5.0 1.0 -1 10
- 0.43024 2 1 ping 64 ------- 0 5.0 1.0 -1 10
r 0.44536 2 1 ping 64 ------- 0 5.0 1.0 -1 10
+ 0.44536 1 2 ping 64 ------- 0 1.0 5.0 -1 11
- 0.44536 1 2 ping 64 ------- 0 1.0 5.0 -1 11
r 0.46048 1 2 ping 64 ------- 0 1.0 5.0 -1 11
+ 0.46048 2 3 ping 64 ------- 0 1.0 5.0 -1 11
- 0.46048 2 3 ping 64 ------- 0 1.0 5.0 -1 11
r 0.4756 2 3 ping 64 ------- 0 1.0 5.0 -1 11
+ 0.4756 3 5 ping 64 ------- 0 1.0 5.0 -1 11
d 0.4756 3 5 ping 64 ------- 0 1.0 5.0 -1 11
+ 0.5 0 2 ping 64 ------- 0 0.0 4.0 -1 12
- 0.5 0 2 ping 64 ------- 0 0.0 4.0 -1 12
+ 0.5 5 3 ping 64 ------- 0 5.0 1.0 -1 13
- 0.5 5 3 ping 64 ------- 0 5.0 1.0 -1 13
r 0.51512 0 2 ping 64 ------- 0 0.0 4.0 -1 12
+ 0.51512 2 3 ping 64 ------- 0 0.0 4.0 -1 12
- 0.51512 2 3 ping 64 ------- 0 0.0 4.0 -1 12
r 0.51512 5 3 ping 64 ------- 0 5.0 1.0 -1 13
+ 0.51512 3 2 ping 64 ------- 0 5.0 1.0 -1 13
- 0.51512 3 2 ping 64 ------- 0 5.0 1.0 -1 13
r 0.53024 2 3 ping 64 ------- 0 0.0 4.0 -1 12
+ 0.53024 3 4 ping 64 ------- 0 0.0 4.0 -1 12
d 0.53024 3 4 ping 64 ------- 0 0.0 4.0 -1 12
r 0.53024 3 2 ping 64 ------- 0 5.0 1.0 -1 13
+ 0.53024 2 1 ping 64 ------- 0 5.0 1.0 -1 13
- 0.53024 2 1 ping 64 ------- 0 5.0 1.0 -1 13
r 0.54536 2 1 ping 64 ------- 0 5.0 1.0 -1 13
+ 0.54536 1 2 ping 64 ------- 0 1.0 5.0 -1 14
- 0.54536 1 2 ping 64 ------- 0 1.0 5.0 -1 14
r 0.56048 1 2 ping 64 ------- 0 1.0 5.0 -1 14
+ 0.56048 2 3 ping 64 ------- 0 1.0 5.0 -1 14
- 0.56048 2 3 ping 64 ------- 0 1.0 5.0 -1 14
r 0.5756 2 3 ping 64 ------- 0 1.0 5.0 -1 14
+ 0.5756 3 5 ping 64 ------- 0 1.0 5.0 -1 14
d 0.5756 3 5 ping 64 ------- 0 1.0 5.0 -1 14
+ 0.6 0 2 ping 64 ------- 0 0.0 4.0 -1 15
- 0.6 0 2 ping 64 ------- 0 0.0 4.0 -1 15
+ 0.6 5 3 ping 64 ------- 0 5.0 1.0 -1 16
- 0.6 5 3 ping 64 ------- 0 5.0 1.0 -1 16
r 0.61512 0 2 ping 64 ------- 0 0.0 4.0 -1 15
+ 0.61512 2 3 ping 64 ------- 0 0.0 4.0 -1 15
- 0.61512 2 3 ping 64 ------- 0 0.0 4.0 -1 15
r 0.61512 5 3 ping 64 ------- 0 5.0 1.0 -1 16
+ 0.61512 3 2 ping 64 ------- 0 5.0 1.0 -1 16
- 0.61512 3 2 ping 64 ------- 0 5.0 1.0 -1 16
r 0.63024 2 3 ping 64 ------- 0 0.0 4.0 -1 15
+ 0.63024 3 4 ping 64 ------- 0 0.0 4.0 -1 15
d 0.63024 3 4 ping 64 ------- 0 0.0 4.0 -1 15
r 0.63024 3 2 ping 64 ------- 0 5.0 1.0 -1 16
+ 0.63024 2 1 ping 64 ------- 0 5.0 1.0 -1 16
- 0.63024 2 1 ping 64 ------- 0 5.0 1.0 -1 16
r 0.64536 2 1 ping 64 ------- 0 5.0 1.0 -1 16
+ 0.64536 1 2 ping 64 ------- 0 1.0 5.0 -1 17
- 0.64536 1 2 ping 64 ------- 0 1.0 5.0 -1 17
r 0.66048 1 2 ping 64 ------- 0 1.0 5.0 -1 17
+ 0.66048 2 3 ping 64 ------- 0 1.0 5.0 -1 17
- 0.66048 2 3 ping 64 ------- 0 1.0 5.0 -1 17
r 0.6756 2 3 ping 64 ------- 0 1.0 5.0 -1 17
+ 0.6756 3 5 ping 64 ------- 0 1.0 5.0 -1 17
d 0.6756 3 5 ping 64 ------- 0 1.0 5.0 -1 17
+ 0.7 0 2 ping 64 ------- 0 0.0 4.0 -1 18
- 0.7 0 2 ping 64 ------- 0 0.0 4.0 -1 18
+ 0.7 5 3 ping 64 ------- 0 5.0 1.0 -1 19
- 0.7 5 3 ping 64 ------- 0 5.0 1.0 -1 19
r 0.71512 0 2 ping 64 ------- 0 0.0 4.0 -1 18
+ 0.71512 2 3 ping 64 ------- 0 0.0 4.0 -1 18
- 0.71512 2 3 ping 64 ------- 0 0.0 4.0 -1 18
r 0.71512 5 3 ping 64 ------- 0 5.0 1.0 -1 19
+ 0.71512 3 2 ping 64 ------- 0 5.0 1.0 -1 19
- 0.71512 3 2 ping 64 ------- 0 5.0 1.0 -1 19
r 0.73024 2 3 ping 64 ------- 0 0.0 4.0 -1 18
+ 0.73024 3 4 ping 64 ------- 0 0.0 4.0 -1 18
d 0.73024 3 4 ping 64 ------- 0 0.0 4.0 -1 18
r 0.73024 3 2 ping 64 ------- 0 5.0 1.0 -1 19
+ 0.73024 2 1 ping 64 ------- 0 5.0 1.0 -1 19
- 0.73024 2 1 ping 64 ------- 0 5.0 1.0 -1 19
r 0.74536 2 1 ping 64 ------- 0 5.0 1.0 -1 19
+ 0.74536 1 2 ping 64 ------- 0 1.0 5.0 -1 20
- 0.74536 1 2 ping 64 ------- 0 1.0 5.0 -1 20
r 0.76048 1 2 ping 64 ------- 0 1.0 5.0 -1 20
+ 0.76048 2 3 ping 64 ------- 0 1.0 5.0 -1 20
- 0.76048 2 3 ping 64 ------- 0 1.0 5.0 -1 20
r 0.7756 2 3 ping 64 ------- 0 1.0 5.0 -1 20
+ 0.7756 3 5 ping 64 ------- 0 1.0 5.0 -1 20
d 0.7756 3 5 ping 64 ------- 0 1.0 5.0 -1 20
+ 0.8 0 2 ping 64 ------- 0 0.0 4.0 -1 21
- 0.8 0 2 ping 64 ------- 0 0.0 4.0 -1 21
+ 0.8 5 3 ping 64 ------- 0 5.0 1.0 -1 22
- 0.8 5 3 ping 64 ------- 0 5.0 1.0 -1 22
r 0.81512 0 2 ping 64 ------- 0 0.0 4.0 -1 21
+ 0.81512 2 3 ping 64 ------- 0 0.0 4.0 -1 21
- 0.81512 2 3 ping 64 ------- 0 0.0 4.0 -1 21
r 0.81512 5 3 ping 64 ------- 0 5.0 1.0 -1 22
+ 0.81512 3 2 ping 64 ------- 0 5.0 1.0 -1 22
- 0.81512 3 2 ping 64 ------- 0 5.0 1.0 -1 22
r 0.83024 2 3 ping 64 ------- 0 0.0 4.0 -1 21
+ 0.83024 3 4 ping 64 ------- 0 0.0 4.0 -1 21
d 0.83024 3 4 ping 64 ------- 0 0.0 4.0 -1 21
r 0.83024 3 2 ping 64 ------- 0 5.0 1.0 -1 22
+ 0.83024 2 1 ping 64 ------- 0 5.0 1.0 -1 22
- 0.83024 2 1 ping 64 ------- 0 5.0 1.0 -1 22
r 0.84536 2 1 ping 64 ------- 0 5.0 1.0 -1 22
+ 0.84536 1 2 ping 64 ------- 0 1.0 5.0 -1 23
- 0.84536 1 2 ping 64 ------- 0 1.0 5.0 -1 23
r 0.86048 1 2 ping 64 ------- 0 1.0 5.0 -1 23
+ 0.86048 2 3 ping 64 ------- 0 1.0 5.0 -1 23
- 0.86048 2 3 ping 64 ------- 0 1.0 5.0 -1 23
r 0.8756 2 3 ping 64 ------- 0 1.0 5.0 -1 23
+ 0.8756 3 5 ping 64 ------- 0 1.0 5.0 -1 23
d 0.8756 3 5 ping 64 ------- 0 1.0 5.0 -1 23
+ 0.9 0 2 ping 64 ------- 0 0.0 4.0 -1 24
- 0.9 0 2 ping 64 ------- 0 0.0 4.0 -1 24
+ 0.9 0 2 ping 64 ------- 0 0.0 4.0 -1 25
+ 0.9 5 3 ping 64 ------- 0 5.0 1.0 -1 26
- 0.9 5 3 ping 64 ------- 0 5.0 1.0 -1 26
+ 0.9 5 3 ping 64 ------- 0 5.0 1.0 -1 27
- 0.90512 0 2 ping 64 ------- 0 0.0 4.0 -1 25
- 0.90512 5 3 ping 64 ------- 0 5.0 1.0 -1 27
r 0.91512 0 2 ping 64 ------- 0 0.0 4.0 -1 24
+ 0.91512 2 3 ping 64 ------- 0 0.0 4.0 -1 24
- 0.91512 2 3 ping 64 ------- 0 0.0 4.0 -1 24
r 0.91512 5 3 ping 64 ------- 0 5.0 1.0 -1 26
+ 0.91512 3 2 ping 64 ------- 0 5.0 1.0 -1 26
- 0.91512 3 2 ping 64 ------- 0 5.0 1.0 -1 26
r 0.92024 0 2 ping 64 ------- 0 0.0 4.0 -1 25
+ 0.92024 2 3 ping 64 ------- 0 0.0 4.0 -1 25
r 0.92024 5 3 ping 64 ------- 0 5.0 1.0 -1 27
+ 0.92024 3 2 ping 64 ------- 0 5.0 1.0 -1 27
- 0.92024 2 3 ping 64 ------- 0 0.0 4.0 -1 25
- 0.92024 3 2 ping 64 ------- 0 5.0 1.0 -1 27
r 0.93024 2 3 ping 64 ------- 0 0.0 4.0 -1 24
+ 0.93024 3 4 ping 64 ------- 0 0.0 4.0 -1 24
d 0.93024 3 4 ping 64 ------- 0 0.0 4.0 -1 24
r 0.93024 3 2 ping 64 ------- 0 5.0 1.0 -1 26
+ 0.93024 2 1 ping 64 ------- 0 5.0 1.0 -1 26
- 0.93024 2 1 ping 64 ------- 0 5.0 1.0 -1 26
r 0.93536 2 3 ping 64 ------- 0 0.0 4.0 -1 25
+ 0.93536 3 4 ping 64 ------- 0 0.0 4.0 -1 25
d 0.93536 3 4 ping 64 ------- 0 0.0 4.0 -1 25
r 0.93536 3 2 ping 64 ------- 0 5.0 1.0 -1 27
+ 0.93536 2 1 ping 64 ------- 0 5.0 1.0 -1 27
- 0.93536 2 1 ping 64 ------- 0 5.0 1.0 -1 27
r 0.94536 2 1 ping 64 ------- 0 5.0 1.0 -1 26
+ 0.94536 1 2 ping 64 ------- 0 1.0 5.0 -1 28
- 0.94536 1 2 ping 64 ------- 0 1.0 5.0 -1 28
r 0.95048 2 1 ping 64 ------- 0 5.0 1.0 -1 27
+ 0.95048 1 2 ping 64 ------- 0 1.0 5.0 -1 29
- 0.95048 1 2 ping 64 ------- 0 1.0 5.0 -1 29
r 0.96048 1 2 ping 64 ------- 0 1.0 5.0 -1 28
+ 0.96048 2 3 ping 64 ------- 0 1.0 5.0 -1 28
- 0.96048 2 3 ping 64 ------- 0 1.0 5.0 -1 28
r 0.9656 1 2 ping 64 ------- 0 1.0 5.0 -1 29
+ 0.9656 2 3 ping 64 ------- 0 1.0 5.0 -1 29
- 0.9656 2 3 ping 64 ------- 0 1.0 5.0 -1 29
r 0.9756 2 3 ping 64 ------- 0 1.0 5.0 -1 28
+ 0.9756 3 5 ping 64 ------- 0 1.0 5.0 -1 28
d 0.9756 3 5 ping 64 ------- 0 1.0 5.0 -1 28
r 0.98072 2 3 ping 64 ------- 0 1.0 5.0 -1 29
+ 0.98072 3 5 ping 64 ------- 0 1.0 5.0 -1 29
d 0.98072 3 5 ping 64 ------- 0 1.0 5.0 -1 29
+ 1 0 2 ping 64 ------- 0 0.0 4.0 -1 30
- 1 0 2 ping 64 ------- 0 0.0 4.0 -1 30
+ 1 5 3 ping 64 ------- 0 5.0 1.0 -1 31
- 1 5 3 ping 64 ------- 0 5.0 1.0 -1 31
r 1.01512 0 2 ping 64 ------- 0 0.0 4.0 -1 30
+ 1.01512 2 3 ping 64 ------- 0 0.0 4.0 -1 30
- 1.01512 2 3 ping 64 ------- 0 0.0 4.0 -1 30
r 1.01512 5 3 ping 64 ------- 0 5.0 1.0 -1 31
+ 1.01512 3 2 ping 64 ------- 0 5.0 1.0 -1 31
- 1.01512 3 2 ping 64 ------- 0 5.0 1.0 -1 31
r 1.03024 2 3 ping 64 ------- 0 0.0 4.0 -1 30
+ 1.03024 3 4 ping 64 ------- 0 0.0 4.0 -1 30
d 1.03024 3 4 ping 64 ------- 0 0.0 4.0 -1 30
r 1.03024 3 2 ping 64 ------- 0 5.0 1.0 -1 31
+ 1.03024 2 1 ping 64 ------- 0 5.0 1.0 -1 31
- 1.03024 2 1 ping 64 ------- 0 5.0 1.0 -1 31
r 1.04536 2 1 ping 64 ------- 0 5.0 1.0 -1 31
+ 1.04536 1 2 ping 64 ------- 0 1.0 5.0 -1 32
- 1.04536 1 2 ping 64 ------- 0 1.0 5.0 -1 32
r 1.06048 1 2 ping 64 ------- 0 1.0 5.0 -1 32
+ 1.06048 2 3 ping 64 ------- 0 1.0 5.0 -1 32
- 1.06048 2 3 ping 64 ------- 0 1.0 5.0 -1 32
r 1.0756 2 3 ping 64 ------- 0 1.0 5.0 -1 32
+ 1.0756 3 5 ping 64 ------- 0 1.0 5.0 -1 32
d 1.0756 3 5 ping 64 ------- 0 1.0 5.0 -1 32
+ 1.1 0 2 ping 64 ------- 0 0.0 4.0 -1 33
- 1.1 0 2 ping 64 ------- 0 0.0 4.0 -1 33
+ 1.1 5 3 ping 64 ------- 0 5.0 1.0 -1 34
- 1.1 5 3 ping 64 ------- 0 5.0 1.0 -1 34
r 1.11512 0 2 ping 64 ------- 0 0.0 4.0 -1 33
+ 1.11512 2 3 ping 64 ------- 0 0.0 4.0 -1 33
- 1.11512 2 3 ping 64 ------- 0 0.0 4.0 -1 33
r 1.11512 5 3 ping 64 ------- 0 5.0 1.0 -1 34
+ 1.11512 3 2 ping 64 ------- 0 5.0 1.0 -1 34
- 1.11512 3 2 ping 64 ------- 0 5.0 1.0 -1 34
r 1.13024 2 3 ping 64 ------- 0 0.0 4.0 -1 33
+ 1.13024 3 4 ping 64 ------- 0 0.0 4.0 -1 33
d 1.13024 3 4 ping 64 ------- 0 0.0 4.0 -1 33
r 1.13024 3 2 ping 64 ------- 0 5.0 1.0 -1 34
+ 1.13024 2 1 ping 64 ------- 0 5.0 1.0 -1 34
- 1.13024 2 1 ping 64 ------- 0 5.0 1.0 -1 34
r 1.14536 2 1 ping 64 ------- 0 5.0 1.0 -1 34
+ 1.14536 1 2 ping 64 ------- 0 1.0 5.0 -1 35
- 1.14536 1 2 ping 64 ------- 0 1.0 5.0 -1 35
r 1.16048 1 2 ping 64 ------- 0 1.0 5.0 -1 35
+ 1.16048 2 3 ping 64 ------- 0 1.0 5.0 -1 35
- 1.16048 2 3 ping 64 ------- 0 1.0 5.0 -1 35
r 1.1756 2 3 ping 64 ------- 0 1.0 5.0 -1 35
+ 1.1756 3 5 ping 64 ------- 0 1.0 5.0 -1 35
d 1.1756 3 5 ping 64 ------- 0 1.0 5.0 -1 35
+ 1.2 0 2 ping 64 ------- 0 0.0 4.0 -1 36
- 1.2 0 2 ping 64 ------- 0 0.0 4.0 -1 36
+ 1.2 5 3 ping 64 ------- 0 5.0 1.0 -1 37
- 1.2 5 3 ping 64 ------- 0 5.0 1.0 -1 37
r 1.21512 0 2 ping 64 ------- 0 0.0 4.0 -1 36
+ 1.21512 2 3 ping 64 ------- 0 0.0 4.0 -1 36
- 1.21512 2 3 ping 64 ------- 0 0.0 4.0 -1 36
r 1.21512 5 3 ping 64 ------- 0 5.0 1.0 -1 37
+ 1.21512 3 2 ping 64 ------- 0 5.0 1.0 -1 37
- 1.21512 3 2 ping 64 ------- 0 5.0 1.0 -1 37
r 1.23024 2 3 ping 64 ------- 0 0.0 4.0 -1 36
+ 1.23024 3 4 ping 64 ------- 0 0.0 4.0 -1 36
d 1.23024 3 4 ping 64 ------- 0 0.0 4.0 -1 36
r 1.23024 3 2 ping 64 ------- 0 5.0 1.0 -1 37
+ 1.23024 2 1 ping 64 ------- 0 5.0 1.0 -1 37
- 1.23024 2 1 ping 64 ------- 0 5.0 1.0 -1 37
r 1.24536 2 1 ping 64 ------- 0 5.0 1.0 -1 37
+ 1.24536 1 2 ping 64 ------- 0 1.0 5.0 -1 38
- 1.24536 1 2 ping 64 ------- 0 1.0 5.0 -1 38
r 1.26048 1 2 ping 64 ------- 0 1.0 5.0 -1 38
+ 1.26048 2 3 ping 64 ------- 0 1.0 5.0 -1 38
- 1.26048 2 3 ping 64 ------- 0 1.0 5.0 -1 38
r 1.2756 2 3 ping 64 ------- 0 1.0 5.0 -1 38
+ 1.2756 3 5 ping 64 ------- 0 1.0 5.0 -1 38
d 1.2756 3 5 ping 64 ------- 0 1.0 5.0 -1 38
+ 1.3 0 2 ping 64 ------- 0 0.0 4.0 -1 39
- 1.3 0 2 ping 64 ------- 0 0.0 4.0 -1 39
+ 1.3 5 3 ping 64 ------- 0 5.0 1.0 -1 40
- 1.3 5 3 ping 64 ------- 0 5.0 1.0 -1 40
r 1.31512 0 2 ping 64 ------- 0 0.0 4.0 -1 39
+ 1.31512 2 3 ping 64 ------- 0 0.0 4.0 -1 39
- 1.31512 2 3 ping 64 ------- 0 0.0 4.0 -1 39
r 1.31512 5 3 ping 64 ------- 0 5.0 1.0 -1 40
+ 1.31512 3 2 ping 64 ------- 0 5.0 1.0 -1 40
- 1.31512 3 2 ping 64 ------- 0 5.0 1.0 -1 40
r 1.33024 2 3 ping 64 ------- 0 0.0 4.0 -1 39
+ 1.33024 3 4 ping 64 ------- 0 0.0 4.0 -1 39
d 1.33024 3 4 ping 64 ------- 0 0.0 4.0 -1 39
r 1.33024 3 2 ping 64 ------- 0 5.0 1.0 -1 40
+ 1.33024 2 1 ping 64 ------- 0 5.0 1.0 -1 40
- 1.33024 2 1 ping 64 ------- 0 5.0 1.0 -1 40
r 1.34536 2 1 ping 64 ------- 0 5.0 1.0 -1 40
+ 1.34536 1 2 ping 64 ------- 0 1.0 5.0 -1 41
- 1.34536 1 2 ping 64 ------- 0 1.0 5.0 -1 41
r 1.36048 1 2 ping 64 ------- 0 1.0 5.0 -1 41
+ 1.36048 2 3 ping 64 ------- 0 1.0 5.0 -1 41
- 1.36048 2 3 ping 64 ------- 0 1.0 5.0 -1 41
r 1.3756 2 3 ping 64 ------- 0 1.0 5.0 -1 41
+ 1.3756 3 5 ping 64 ------- 0 1.0 5.0 -1 41
d 1.3756 3 5 ping 64 ------- 0 1.0 5.0 -1 41
+ 1.4 0 2 ping 64 ------- 0 0.0 4.0 -1 42
- 1.4 0 2 ping 64 ------- 0 0.0 4.0 -1 42
+ 1.4 5 3 ping 64 ------- 0 5.0 1.0 -1 43
- 1.4 5 3 ping 64 ------- 0 5.0 1.0 -1 43
r 1.41512 0 2 ping 64 ------- 0 0.0 4.0 -1 42
+ 1.41512 2 3 ping 64 ------- 0 0.0 4.0 -1 42
- 1.41512 2 3 ping 64 ------- 0 0.0 4.0 -1 42
r 1.41512 5 3 ping 64 ------- 0 5.0 1.0 -1 43
+ 1.41512 3 2 ping 64 ------- 0 5.0 1.0 -1 43
- 1.41512 3 2 ping 64 ------- 0 5.0 1.0 -1 43
r 1.43024 2 3 ping 64 ------- 0 0.0 4.0 -1 42
+ 1.43024 3 4 ping 64 ------- 0 0.0 4.0 -1 42
d 1.43024 3 4 ping 64 ------- 0 0.0 4.0 -1 42
r 1.43024 3 2 ping 64 ------- 0 5.0 1.0 -1 43
+ 1.43024 2 1 ping 64 ------- 0 5.0 1.0 -1 43
- 1.43024 2 1 ping 64 ------- 0 5.0 1.0 -1 43
r 1.44536 2 1 ping 64 ------- 0 5.0 1.0 -1 43
+ 1.44536 1 2 ping 64 ------- 0 1.0 5.0 -1 44
- 1.44536 1 2 ping 64 ------- 0 1.0 5.0 -1 44
r 1.46048 1 2 ping 64 ------- 0 1.0 5.0 -1 44
+ 1.46048 2 3 ping 64 ------- 0 1.0 5.0 -1 44
- 1.46048 2 3 ping 64 ------- 0 1.0 5.0 -1 44
r 1.4756 2 3 ping 64 ------- 0 1.0 5.0 -1 44
+ 1.4756 3 5 ping 64 ------- 0 1.0 5.0 -1 44
d 1.4756 3 5 ping 64 ------- 0 1.0 5.0 -1 44
+ 1.5 0 2 ping 64 ------- 0 0.0 4.0 -1 45
- 1.5 0 2 ping 64 ------- 0 0.0 4.0 -1 45
+ 1.5 5 3 ping 64 ------- 0 5.0 1.0 -1 46
- 1.5 5 3 ping 64 ------- 0 5.0 1.0 -1 46
r 1.51512 0 2 ping 64 ------- 0 0.0 4.0 -1 45
+ 1.51512 2 3 ping 64 ------- 0 0.0 4.0 -1 45
- 1.51512 2 3 ping 64 ------- 0 0.0 4.0 -1 45
r 1.51512 5 3 ping 64 ------- 0 5.0 1.0 -1 46
+ 1.51512 3 2 ping 64 ------- 0 5.0 1.0 -1 46
- 1.51512 3 2 ping 64 ------- 0 5.0 1.0 -1 46
r 1.53024 2 3 ping 64 ------- 0 0.0 4.0 -1 45
+ 1.53024 3 4 ping 64 ------- 0 0.0 4.0 -1 45
d 1.53024 3 4 ping 64 ------- 0 0.0 4.0 -1 45
r 1.53024 3 2 ping 64 ------- 0 5.0 1.0 -1 46
+ 1.53024 2 1 ping 64 ------- 0 5.0 1.0 -1 46
- 1.53024 2 1 ping 64 ------- 0 5.0 1.0 -1 46
r 1.54536 2 1 ping 64 ------- 0 5.0 1.0 -1 46
+ 1.54536 1 2 ping 64 ------- 0 1.0 5.0 -1 47
- 1.54536 1 2 ping 64 ------- 0 1.0 5.0 -1 47
r 1.56048 1 2 ping 64 ------- 0 1.0 5.0 -1 47
+ 1.56048 2 3 ping 64 ------- 0 1.0 5.0 -1 47
- 1.56048 2 3 ping 64 ------- 0 1.0 5.0 -1 47
r 1.5756 2 3 ping 64 ------- 0 1.0 5.0 -1 47
+ 1.5756 3 5 ping 64 ------- 0 1.0 5.0 -1 47
d 1.5756 3 5 ping 64 ------- 0 1.0 5.0 -1 47
+ 1.6 0 2 ping 64 ------- 0 0.0 4.0 -1 48
- 1.6 0 2 ping 64 ------- 0 0.0 4.0 -1 48
+ 1.6 5 3 ping 64 ------- 0 5.0 1.0 -1 49
- 1.6 5 3 ping 64 ------- 0 5.0 1.0 -1 49
r 1.61512 0 2 ping 64 ------- 0 0.0 4.0 -1 48
+ 1.61512 2 3 ping 64 ------- 0 0.0 4.0 -1 48
- 1.61512 2 3 ping 64 ------- 0 0.0 4.0 -1 48
r 1.61512 5 3 ping 64 ------- 0 5.0 1.0 -1 49
+ 1.61512 3 2 ping 64 ------- 0 5.0 1.0 -1 49
- 1.61512 3 2 ping 64 ------- 0 5.0 1.0 -1 49
r 1.63024 2 3 ping 64 ------- 0 0.0 4.0 -1 48
+ 1.63024 3 4 ping 64 ------- 0 0.0 4.0 -1 48
d 1.63024 3 4 ping 64 ------- 0 0.0 4.0 -1 48
r 1.63024 3 2 ping 64 ------- 0 5.0 1.0 -1 49
+ 1.63024 2 1 ping 64 ------- 0 5.0 1.0 -1 49
- 1.63024 2 1 ping 64 ------- 0 5.0 1.0 -1 49
r 1.64536 2 1 ping 64 ------- 0 5.0 1.0 -1 49
+ 1.64536 1 2 ping 64 ------- 0 1.0 5.0 -1 50
- 1.64536 1 2 ping 64 ------- 0 1.0 5.0 -1 50
r 1.66048 1 2 ping 64 ------- 0 1.0 5.0 -1 50
+ 1.66048 2 3 ping 64 ------- 0 1.0 5.0 -1 50
- 1.66048 2 3 ping 64 ------- 0 1.0 5.0 -1 50
r 1.6756 2 3 ping 64 ------- 0 1.0 5.0 -1 50
+ 1.6756 3 5 ping 64 ------- 0 1.0 5.0 -1 50
d 1.6756 3 5 ping 64 ------- 0 1.0 5.0 -1 50
+ 1.7 0 2 ping 64 ------- 0 0.0 4.0 -1 51
- 1.7 0 2 ping 64 ------- 0 0.0 4.0 -1 51
+ 1.7 5 3 ping 64 ------- 0 5.0 1.0 -1 52
- 1.7 5 3 ping 64 ------- 0 5.0 1.0 -1 52
r 1.71512 0 2 ping 64 ------- 0 0.0 4.0 -1 51
+ 1.71512 2 3 ping 64 ------- 0 0.0 4.0 -1 51
- 1.71512 2 3 ping 64 ------- 0 0.0 4.0 -1 51
r 1.71512 5 3 ping 64 ------- 0 5.0 1.0 -1 52
+ 1.71512 3 2 ping 64 ------- 0 5.0 1.0 -1 52
- 1.71512 3 2 ping 64 ------- 0 5.0 1.0 -1 52
r 1.73024 2 3 ping 64 ------- 0 0.0 4.0 -1 51
+ 1.73024 3 4 ping 64 ------- 0 0.0 4.0 -1 51
d 1.73024 3 4 ping 64 ------- 0 0.0 4.0 -1 51
r 1.73024 3 2 ping 64 ------- 0 5.0 1.0 -1 52
+ 1.73024 2 1 ping 64 ------- 0 5.0 1.0 -1 52
- 1.73024 2 1 ping 64 ------- 0 5.0 1.0 -1 52
r 1.74536 2 1 ping 64 ------- 0 5.0 1.0 -1 52
+ 1.74536 1 2 ping 64 ------- 0 1.0 5.0 -1 53
- 1.74536 1 2 ping 64 ------- 0 1.0 5.0 -1 53
r 1.76048 1 2 ping 64 ------- 0 1.0 5.0 -1 53
+ 1.76048 2 3 ping 64 ------- 0 1.0 5.0 -1 53
- 1.76048 2 3 ping 64 ------- 0 1.0 5.0 -1 53
r 1.7756 2 3 ping 64 ------- 0 1.0 5.0 -1 53
+ 1.7756 3 5 ping 64 ------- 0 1.0 5.0 -1 53
d 1.7756 3 5 ping 64 ------- 0 1.0 5.0 -1 53
+ 1.8 0 2 ping 64 ------- 0 0.0 4.0 -1 54
- 1.8 0 2 ping 64 ------- 0 0.0 4.0 -1 54
+ 1.8 5 3 ping 64 ------- 0 5.0 1.0 -1 55
- 1.8 5 3 ping 64 ------- 0 5.0 1.0 -1 55
r 1.81512 0 2 ping 64 ------- 0 0.0 4.0 -1 54
+ 1.81512 2 3 ping 64 ------- 0 0.0 4.0 -1 54
- 1.81512 2 3 ping 64 ------- 0 0.0 4.0 -1 54
r 1.81512 5 3 ping 64 ------- 0 5.0 1.0 -1 55
+ 1.81512 3 2 ping 64 ------- 0 5.0 1.0 -1 55
- 1.81512 3 2 ping 64 ------- 0 5.0 1.0 -1 55
r 1.83024 2 3 ping 64 ------- 0 0.0 4.0 -1 54
+ 1.83024 3 4 ping 64 ------- 0 0.0 4.0 -1 54
d 1.83024 3 4 ping 64 ------- 0 0.0 4.0 -1 54
r 1.83024 3 2 ping 64 ------- 0 5.0 1.0 -1 55
+ 1.83024 2 1 ping 64 ------- 0 5.0 1.0 -1 55
- 1.83024 2 1 ping 64 ------- 0 5.0 1.0 -1 55
r 1.84536 2 1 ping 64 ------- 0 5.0 1.0 -1 55
+ 1.84536 1 2 ping 64 ------- 0 1.0 5.0 -1 56
- 1.84536 1 2 ping 64 ------- 0 1.0 5.0 -1 56
r 1.86048 1 2 ping 64 ------- 0 1.0 5.0 -1 56
+ 1.86048 2 3 ping 64 ------- 0 1.0 5.0 -1 56
- 1.86048 2 3 ping 64 ------- 0 1.0 5.0 -1 56
r 1.8756 2 3 ping 64 ------- 0 1.0 5.0 -1 56
+ 1.8756 3 5 ping 64 ------- 0 1.0 5.0 -1 56
d 1.8756 3 5 ping 64 ------- 0 1.0 5.0 -1 56
+ 2 0 2 ping 64 ------- 0 0.0 4.0 -1 57
- 2 0 2 ping 64 ------- 0 0.0 4.0 -1 57
+ 2 5 3 ping 64 ------- 0 5.0 1.0 -1 58
- 2 5 3 ping 64 ------- 0 5.0 1.0 -1 58
r 2.01512 0 2 ping 64 ------- 0 0.0 4.0 -1 57
+ 2.01512 2 3 ping 64 ------- 0 0.0 4.0 -1 57
- 2.01512 2 3 ping 64 ------- 0 0.0 4.0 -1 57
r 2.01512 5 3 ping 64 ------- 0 5.0 1.0 -1 58
+ 2.01512 3 2 ping 64 ------- 0 5.0 1.0 -1 58
- 2.01512 3 2 ping 64 ------- 0 5.0 1.0 -1 58
r 2.03024 2 3 ping 64 ------- 0 0.0 4.0 -1 57
+ 2.03024 3 4 ping 64 ------- 0 0.0 4.0 -1 57
d 2.03024 3 4 ping 64 ------- 0 0.0 4.0 -1 57
r 2.03024 3 2 ping 64 ------- 0 5.0 1.0 -1 58
+ 2.03024 2 1 ping 64 ------- 0 5.0 1.0 -1 58
- 2.03024 2 1 ping 64 ------- 0 5.0 1.0 -1 58
r 2.04536 2 1 ping 64 ------- 0 5.0 1.0 -1 58
+ 2.04536 1 2 ping 64 ------- 0 1.0 5.0 -1 59
- 2.04536 1 2 ping 64 ------- 0 1.0 5.0 -1 59
r 2.06048 1 2 ping 64 ------- 0 1.0 5.0 -1 59
+ 2.06048 2 3 ping 64 ------- 0 1.0 5.0 -1 59
- 2.06048 2 3 ping 64 ------- 0 1.0 5.0 -1 59
r 2.0756 2 3 ping 64 ------- 0 1.0 5.0 -1 59
+ 2.0756 3 5 ping 64 ------- 0 1.0 5.0 -1 59
d 2.0756 3 5 ping 64 ------- 0 1.0 5.0 -1 59
+ 2.1 0 2 ping 64 ------- 0 0.0 4.0 -1 60
- 2.1 0 2 ping 64 ------- 0 0.0 4.0 -1 60
+ 2.1 5 3 ping 64 ------- 0 5.0 1.0 -1 61
- 2.1 5 3 ping 64 ------- 0 5.0 1.0 -1 61
r 2.11512 0 2 ping 64 ------- 0 0.0 4.0 -1 60
+ 2.11512 2 3 ping 64 ------- 0 0.0 4.0 -1 60
- 2.11512 2 3 ping 64 ------- 0 0.0 4.0 -1 60
r 2.11512 5 3 ping 64 ------- 0 5.0 1.0 -1 61
+ 2.11512 3 2 ping 64 ------- 0 5.0 1.0 -1 61
- 2.11512 3 2 ping 64 ------- 0 5.0 1.0 -1 61
r 2.13024 2 3 ping 64 ------- 0 0.0 4.0 -1 60
+ 2.13024 3 4 ping 64 ------- 0 0.0 4.0 -1 60
d 2.13024 3 4 ping 64 ------- 0 0.0 4.0 -1 60
r 2.13024 3 2 ping 64 ------- 0 5.0 1.0 -1 61
+ 2.13024 2 1 ping 64 ------- 0 5.0 1.0 -1 61
- 2.13024 2 1 ping 64 ------- 0 5.0 1.0 -1 61
r 2.14536 2 1 ping 64 ------- 0 5.0 1.0 -1 61
+ 2.14536 1 2 ping 64 ------- 0 1.0 5.0 -1 62
- 2.14536 1 2 ping 64 ------- 0 1.0 5.0 -1 62
r 2.16048 1 2 ping 64 ------- 0 1.0 5.0 -1 62
+ 2.16048 2 3 ping 64 ------- 0 1.0 5.0 -1 62
- 2.16048 2 3 ping 64 ------- 0 1.0 5.0 -1 62
r 2.1756 2 3 ping 64 ------- 0 1.0 5.0 -1 62
+ 2.1756 3 5 ping 64 ------- 0 1.0 5.0 -1 62
d 2.1756 3 5 ping 64 ------- 0 1.0 5.0 -1 62
+ 2.2 0 2 ping 64 ------- 0 0.0 4.0 -1 63
- 2.2 0 2 ping 64 ------- 0 0.0 4.0 -1 63
+ 2.2 5 3 ping 64 ------- 0 5.0 1.0 -1 64
- 2.2 5 3 ping 64 ------- 0 5.0 1.0 -1 64
r 2.21512 0 2 ping 64 ------- 0 0.0 4.0 -1 63
+ 2.21512 2 3 ping 64 ------- 0 0.0 4.0 -1 63
- 2.21512 2 3 ping 64 ------- 0 0.0 4.0 -1 63
r 2.21512 5 3 ping 64 ------- 0 5.0 1.0 -1 64
+ 2.21512 3 2 ping 64 ------- 0 5.0 1.0 -1 64
- 2.21512 3 2 ping 64 ------- 0 5.0 1.0 -1 64
r 2.23024 2 3 ping 64 ------- 0 0.0 4.0 -1 63
+ 2.23024 3 4 ping 64 ------- 0 0.0 4.0 -1 63
d 2.23024 3 4 ping 64 ------- 0 0.0 4.0 -1 63
r 2.23024 3 2 ping 64 ------- 0 5.0 1.0 -1 64
+ 2.23024 2 1 ping 64 ------- 0 5.0 1.0 -1 64
- 2.23024 2 1 ping 64 ------- 0 5.0 1.0 -1 64
r 2.24536 2 1 ping 64 ------- 0 5.0 1.0 -1 64
+ 2.24536 1 2 ping 64 ------- 0 1.0 5.0 -1 65
- 2.24536 1 2 ping 64 ------- 0 1.0 5.0 -1 65
r 2.26048 1 2 ping 64 ------- 0 1.0 5.0 -1 65
+ 2.26048 2 3 ping 64 ------- 0 1.0 5.0 -1 65
- 2.26048 2 3 ping 64 ------- 0 1.0 5.0 -1 65
r 2.2756 2 3 ping 64 ------- 0 1.0 5.0 -1 65
+ 2.2756 3 5 ping 64 ------- 0 1.0 5.0 -1 65
d 2.2756 3 5 ping 64 ------- 0 1.0 5.0 -1 65
+ 2.3 0 2 ping 64 ------- 0 0.0 4.0 -1 66
- 2.3 0 2 ping 64 ------- 0 0.0 4.0 -1 66
+ 2.3 5 3 ping 64 ------- 0 5.0 1.0 -1 67
- 2.3 5 3 ping 64 ------- 0 5.0 1.0 -1 67
r 2.31512 0 2 ping 64 ------- 0 0.0 4.0 -1 66
+ 2.31512 2 3 ping 64 ------- 0 0.0 4.0 -1 66
- 2.31512 2 3 ping 64 ------- 0 0.0 4.0 -1 66
r 2.31512 5 3 ping 64 ------- 0 5.0 1.0 -1 67
+ 2.31512 3 2 ping 64 ------- 0 5.0 1.0 -1 67
- 2.31512 3 2 ping 64 ------- 0 5.0 1.0 -1 67
r 2.33024 2 3 ping 64 ------- 0 0.0 4.0 -1 66
+ 2.33024 3 4 ping 64 ------- 0 0.0 4.0 -1 66
d 2.33024 3 4 ping 64 ------- 0 0.0 4.0 -1 66
r 2.33024 3 2 ping 64 ------- 0 5.0 1.0 -1 67
+ 2.33024 2 1 ping 64 ------- 0 5.0 1.0 -1 67
- 2.33024 2 1 ping 64 ------- 0 5.0 1.0 -1 67
r 2.34536 2 1 ping 64 ------- 0 5.0 1.0 -1 67
+ 2.34536 1 2 ping 64 ------- 0 1.0 5.0 -1 68
- 2.34536 1 2 ping 64 ------- 0 1.0 5.0 -1 68
r 2.36048 1 2 ping 64 ------- 0 1.0 5.0 -1 68
+ 2.36048 2 3 ping 64 ------- 0 1.0 5.0 -1 68
- 2.36048 2 3 ping 64 ------- 0 1.0 5.0 -1 68
r 2.3756 2 3 ping 64 ------- 0 1.0 5.0 -1 68
+ 2.3756 3 5 ping 64 ------- 0 1.0 5.0 -1 68
d 2.3756 3 5 ping 64 ------- 0 1.0 5.0 -1 68
+ 2.4 0 2 ping 64 ------- 0 0.0 4.0 -1 69
- 2.4 0 2 ping 64 ------- 0 0.0 4.0 -1 69
+ 2.4 5 3 ping 64 ------- 0 5.0 1.0 -1 70
- 2.4 5 3 ping 64 ------- 0 5.0 1.0 -1 70
r 2.41512 0 2 ping 64 ------- 0 0.0 4.0 -1 69
+ 2.41512 2 3 ping 64 ------- 0 0.0 4.0 -1 69
- 2.41512 2 3 ping 64 ------- 0 0.0 4.0 -1 69
r 2.41512 5 3 ping 64 ------- 0 5.0 1.0 -1 70
+ 2.41512 3 2 ping 64 ------- 0 5.0 1.0 -1 70
- 2.41512 3 2 ping 64 ------- 0 5.0 1.0 -1 70
r 2.43024 2 3 ping 64 ------- 0 0.0 4.0 -1 69
+ 2.43024 3 4 ping 64 ------- 0 0.0 4.0 -1 69
d 2.43024 3 4 ping 64 ------- 0 0.0 4.0 -1 69
r 2.43024 3 2 ping 64 ------- 0 5.0 1.0 -1 70
+ 2.43024 2 1 ping 64 ------- 0 5.0 1.0 -1 70
- 2.43024 2 1 ping 64 ------- 0 5.0 1.0 -1 70
r 2.44536 2 1 ping 64 ------- 0 5.0 1.0 -1 70
+ 2.44536 1 2 ping 64 ------- 0 1.0 5.0 -1 71
- 2.44536 1 2 ping 64 ------- 0 1.0 5.0 -1 71
r 2.46048 1 2 ping 64 ------- 0 1.0 5.0 -1 71
+ 2.46048 2 3 ping 64 ------- 0 1.0 5.0 -1 71
- 2.46048 2 3 ping 64 ------- 0 1.0 5.0 -1 71
r 2.4756 2 3 ping 64 ------- 0 1.0 5.0 -1 71
+ 2.4756 3 5 ping 64 ------- 0 1.0 5.0 -1 71
d 2.4756 3 5 ping 64 ------- 0 1.0 5.0 -1 71
+ 2.5 0 2 ping 64 ------- 0 0.0 4.0 -1 72
- 2.5 0 2 ping 64 ------- 0 0.0 4.0 -1 72
+ 2.5 5 3 ping 64 ------- 0 5.0 1.0 -1 73
- 2.5 5 3 ping 64 ------- 0 5.0 1.0 -1 73
r 2.51512 0 2 ping 64 ------- 0 0.0 4.0 -1 72
+ 2.51512 2 3 ping 64 ------- 0 0.0 4.0 -1 72
- 2.51512 2 3 ping 64 ------- 0 0.0 4.0 -1 72
r 2.51512 5 3 ping 64 ------- 0 5.0 1.0 -1 73
+ 2.51512 3 2 ping 64 ------- 0 5.0 1.0 -1 73
- 2.51512 3 2 ping 64 ------- 0 5.0 1.0 -1 73
r 2.53024 2 3 ping 64 ------- 0 0.0 4.0 -1 72
+ 2.53024 3 4 ping 64 ------- 0 0.0 4.0 -1 72
d 2.53024 3 4 ping 64 ------- 0 0.0 4.0 -1 72
r 2.53024 3 2 ping 64 ------- 0 5.0 1.0 -1 73
+ 2.53024 2 1 ping 64 ------- 0 5.0 1.0 -1 73
- 2.53024 2 1 ping 64 ------- 0 5.0 1.0 -1 73
r 2.54536 2 1 ping 64 ------- 0 5.0 1.0 -1 73
+ 2.54536 1 2 ping 64 ------- 0 1.0 5.0 -1 74
- 2.54536 1 2 ping 64 ------- 0 1.0 5.0 -1 74
r 2.56048 1 2 ping 64 ------- 0 1.0 5.0 -1 74
+ 2.56048 2 3 ping 64 ------- 0 1.0 5.0 -1 74
- 2.56048 2 3 ping 64 ------- 0 1.0 5.0 -1 74
r 2.5756 2 3 ping 64 ------- 0 1.0 5.0 -1 74
+ 2.5756 3 5 ping 64 ------- 0 1.0 5.0 -1 74
d 2.5756 3 5 ping 64 ------- 0 1.0 5.0 -1 74
+ 2.6 0 2 ping 64 ------- 0 0.0 4.0 -1 75
- 2.6 0 2 ping 64 ------- 0 0.0 4.0 -1 75
+ 2.6 5 3 ping 64 ------- 0 5.0 1.0 -1 76
- 2.6 5 3 ping 64 ------- 0 5.0 1.0 -1 76
r 2.61512 0 2 ping 64 ------- 0 0.0 4.0 -1 75
+ 2.61512 2 3 ping 64 ------- 0 0.0 4.0 -1 75
- 2.61512 2 3 ping 64 ------- 0 0.0 4.0 -1 75
r 2.61512 5 3 ping 64 ------- 0 5.0 1.0 -1 76
+ 2.61512 3 2 ping 64 ------- 0 5.0 1.0 -1 76
- 2.61512 3 2 ping 64 ------- 0 5.0 1.0 -1 76
r 2.63024 2 3 ping 64 ------- 0 0.0 4.0 -1 75
+ 2.63024 3 4 ping 64 ------- 0 0.0 4.0 -1 75
d 2.63024 3 4 ping 64 ------- 0 0.0 4.0 -1 75
r 2.63024 3 2 ping 64 ------- 0 5.0 1.0 -1 76
+ 2.63024 2 1 ping 64 ------- 0 5.0 1.0 -1 76
- 2.63024 2 1 ping 64 ------- 0 5.0 1.0 -1 76
r 2.64536 2 1 ping 64 ------- 0 5.0 1.0 -1 76
+ 2.64536 1 2 ping 64 ------- 0 1.0 5.0 -1 77
- 2.64536 1 2 ping 64 ------- 0 1.0 5.0 -1 77
r 2.66048 1 2 ping 64 ------- 0 1.0 5.0 -1 77
+ 2.66048 2 3 ping 64 ------- 0 1.0 5.0 -1 77
- 2.66048 2 3 ping 64 ------- 0 1.0 5.0 -1 77
r 2.6756 2 3 ping 64 ------- 0 1.0 5.0 -1 77
+ 2.6756 3 5 ping 64 ------- 0 1.0 5.0 -1 77
d 2.6756 3 5 ping 64 ------- 0 1.0 5.0 -1 77
+ 2.7 0 2 ping 64 ------- 0 0.0 4.0 -1 78
- 2.7 0 2 ping 64 ------- 0 0.0 4.0 -1 78
+ 2.7 5 3 ping 64 ------- 0 5.0 1.0 -1 79
- 2.7 5 3 ping 64 ------- 0 5.0 1.0 -1 79
r 2.71512 0 2 ping 64 ------- 0 0.0 4.0 -1 78
+ 2.71512 2 3 ping 64 ------- 0 0.0 4.0 -1 78
- 2.71512 2 3 ping 64 ------- 0 0.0 4.0 -1 78
r 2.71512 5 3 ping 64 ------- 0 5.0 1.0 -1 79
+ 2.71512 3 2 ping 64 ------- 0 5.0 1.0 -1 79
- 2.71512 3 2 ping 64 ------- 0 5.0 1.0 -1 79
r 2.73024 2 3 ping 64 ------- 0 0.0 4.0 -1 78
+ 2.73024 3 4 ping 64 ------- 0 0.0 4.0 -1 78
d 2.73024 3 4 ping 64 ------- 0 0.0 4.0 -1 78
r 2.73024 3 2 ping 64 ------- 0 5.0 1.0 -1 79
+ 2.73024 2 1 ping 64 ------- 0 5.0 1.0 -1 79